file 34314509 1666423875                                        
version 3
run GEANT-0-20221022-15:30:49-11838
attr configname GEANT
attr datetime 20221022-15:30:49
attr datetimef 20221022-153049
attr experiment GEANT
attr inifile omnetpp.ini
attr iterationvars ""
attr iterationvarsd ""
attr iterationvarsf ""
attr measurement ""
attr network GEANT
attr processid 11838
attr repetition 0
attr replication #0
attr resultdir results
attr runnumber 0
attr seedset 0
config image-path ../../../omnetpp-6.0.1/samples/inet4.4/images
config network GEANT
config description "GEANT Network"
config *.*.ipv4.arp.typename GlobalArp
config *.node*.numApps 23
config *.node*.app[1..22].typename UdpBasicApp
config *.node*.app[0].typename UdpSink
config *.node*.app[1..22].messageLength 1000B
config *.node*.app[1..22].destPort "5000 + index"
config *.node*.app[0].localPort 5000
config *.node*.app[1..22].destAddresses "\"node\" + string(index) + \"\""
config *.node*.app[1..22].sendInterval exponential(12ms)
config *.node*.app[1..22].packetName "\"UDPData\""
config sim-time-limit 900s
config *.configurator.dumpAddresses true
config *.configurator.dumpTopology true
config *.configurator.dumpLinks true
config *.configurator.dumpRoutes true
config *.visualizer.interfaceTableVisualizer.displayInterfaceTables true

vector 0 GEANT.node1.udp passedUpPk:vector(count) ETV
attr interpolationmode none
attr recordingmode vector(count)
attr source packetSentToUpper
attr title "packets passed up, count"
vector 1 GEANT.node1.udp droppedPkWrongPort:vector(count) ETV
attr interpolationmode none
attr recordingmode vector(count)
attr source packetDropReasonIsNoPortFound(packetDropped)
attr title "packets dropped (wrong port), count"
vector 2 GEANT.node1.udp droppedPkBadChecksum:vector(count) ETV
attr interpolationmode none
attr recordingmode vector(count)
attr source packetDropReasonIsIncorrectlyReceived(packetDropped)
attr title "packets dropped (checksum error), count"
vector 3 GEANT.node2.udp passedUpPk:vector(count) ETV
attr interpolationmode none
attr recordingmode vector(count)
attr source packetSentToUpper
attr title "packets passed up, count"
vector 4 GEANT.node2.udp droppedPkWrongPort:vector(count) ETV
attr interpolationmode none
attr recordingmode vector(count)
attr source packetDropReasonIsNoPortFound(packetDropped)
attr title "packets dropped (wrong port), count"
vector 5 GEANT.node2.udp droppedPkBadChecksum:vector(count) ETV
attr interpolationmode none
attr recordingmode vector(count)
attr source packetDropReasonIsIncorrectlyReceived(packetDropped)
attr title "packets dropped (checksum error), count"
vector 6 GEANT.node3.udp passedUpPk:vector(count) ETV
attr interpolationmode none
attr recordingmode vector(count)
attr source packetSentToUpper
attr title "packets passed up, count"
vector 7 GEANT.node3.udp droppedPkWrongPort:vector(count) ETV
attr interpolationmode none
attr recordingmode vector(count)
attr source packetDropReasonIsNoPortFound(packetDropped)
attr title "packets dropped (wrong port), count"
vector 8 GEANT.node3.udp droppedPkBadChecksum:vector(count) ETV
attr interpolationmode none
attr recordingmode vector(count)
attr source packetDropReasonIsIncorrectlyReceived(packetDropped)
attr title "packets dropped (checksum error), count"
vector 9 GEANT.node4.udp passedUpPk:vector(count) ETV
attr interpolationmode none
attr recordingmode vector(count)
attr source packetSentToUpper
attr title "packets passed up, count"
vector 10 GEANT.node4.udp droppedPkWrongPort:vector(count) ETV
attr interpolationmode none
attr recordingmode vector(count)
attr source packetDropReasonIsNoPortFound(packetDropped)
attr title "packets dropped (wrong port), count"
vector 11 GEANT.node4.udp droppedPkBadChecksum:vector(count) ETV
attr interpolationmode none
attr recordingmode vector(count)
attr source packetDropReasonIsIncorrectlyReceived(packetDropped)
attr title "packets dropped (checksum error), count"
vector 12 GEANT.node5.udp passedUpPk:vector(count) ETV
attr interpolationmode none
attr recordingmode vector(count)
attr source packetSentToUpper
attr title "packets passed up, count"
vector 13 GEANT.node5.udp droppedPkWrongPort:vector(count) ETV
attr interpolationmode none
attr recordingmode vector(count)
attr source packetDropReasonIsNoPortFound(packetDropped)
attr title "packets dropped (wrong port), count"
vector 14 GEANT.node5.udp droppedPkBadChecksum:vector(count) ETV
attr interpolationmode none
attr recordingmode vector(count)
attr source packetDropReasonIsIncorrectlyReceived(packetDropped)
attr title "packets dropped (checksum error), count"
vector 15 GEANT.node6.udp passedUpPk:vector(count) ETV
attr interpolationmode none
attr recordingmode vector(count)
attr source packetSentToUpper
attr title "packets passed up, count"
vector 16 GEANT.node6.udp droppedPkWrongPort:vector(count) ETV
attr interpolationmode none
attr recordingmode vector(count)
attr source packetDropReasonIsNoPortFound(packetDropped)
attr title "packets dropped (wrong port), count"
vector 17 GEANT.node6.udp droppedPkBadChecksum:vector(count) ETV
attr interpolationmode none
attr recordingmode vector(count)
attr source packetDropReasonIsIncorrectlyReceived(packetDropped)
attr title "packets dropped (checksum error), count"
vector 18 GEANT.node7.udp passedUpPk:vector(count) ETV
attr interpolationmode none
attr recordingmode vector(count)
attr source packetSentToUpper
attr title "packets passed up, count"
vector 19 GEANT.node7.udp droppedPkWrongPort:vector(count) ETV
attr interpolationmode none
attr recordingmode vector(count)
attr source packetDropReasonIsNoPortFound(packetDropped)
attr title "packets dropped (wrong port), count"
vector 20 GEANT.node7.udp droppedPkBadChecksum:vector(count) ETV
attr interpolationmode none
attr recordingmode vector(count)
attr source packetDropReasonIsIncorrectlyReceived(packetDropped)
attr title "packets dropped (checksum error), count"
vector 21 GEANT.node8.udp passedUpPk:vector(count) ETV
attr interpolationmode none
attr recordingmode vector(count)
attr source packetSentToUpper
attr title "packets passed up, count"
vector 22 GEANT.node8.udp droppedPkWrongPort:vector(count) ETV
attr interpolationmode none
attr recordingmode vector(count)
attr source packetDropReasonIsNoPortFound(packetDropped)
attr title "packets dropped (wrong port), count"
vector 23 GEANT.node8.udp droppedPkBadChecksum:vector(count) ETV
attr interpolationmode none
attr recordingmode vector(count)
attr source packetDropReasonIsIncorrectlyReceived(packetDropped)
attr title "packets dropped (checksum error), count"
vector 24 GEANT.node9.udp passedUpPk:vector(count) ETV
attr interpolationmode none
attr recordingmode vector(count)
attr source packetSentToUpper
attr title "packets passed up, count"
vector 25 GEANT.node9.udp droppedPkWrongPort:vector(count) ETV
attr interpolationmode none
attr recordingmode vector(count)
attr source packetDropReasonIsNoPortFound(packetDropped)
attr title "packets dropped (wrong port), count"
vector 26 GEANT.node9.udp droppedPkBadChecksum:vector(count) ETV
attr interpolationmode none
attr recordingmode vector(count)
attr source packetDropReasonIsIncorrectlyReceived(packetDropped)
attr title "packets dropped (checksum error), count"
vector 27 GEANT.node10.udp passedUpPk:vector(count) ETV
attr interpolationmode none
attr recordingmode vector(count)
attr source packetSentToUpper
attr title "packets passed up, count"
vector 28 GEANT.node10.udp droppedPkWrongPort:vector(count) ETV
attr interpolationmode none
attr recordingmode vector(count)
attr source packetDropReasonIsNoPortFound(packetDropped)
attr title "packets dropped (wrong port), count"
vector 29 GEANT.node10.udp droppedPkBadChecksum:vector(count) ETV
attr interpolationmode none
attr recordingmode vector(count)
attr source packetDropReasonIsIncorrectlyReceived(packetDropped)
attr title "packets dropped (checksum error), count"
vector 30 GEANT.node11.udp passedUpPk:vector(count) ETV
attr interpolationmode none
attr recordingmode vector(count)
attr source packetSentToUpper
attr title "packets passed up, count"
vector 31 GEANT.node11.udp droppedPkWrongPort:vector(count) ETV
attr interpolationmode none
attr recordingmode vector(count)
attr source packetDropReasonIsNoPortFound(packetDropped)
attr title "packets dropped (wrong port), count"
vector 32 GEANT.node11.udp droppedPkBadChecksum:vector(count) ETV
attr interpolationmode none
attr recordingmode vector(count)
attr source packetDropReasonIsIncorrectlyReceived(packetDropped)
attr title "packets dropped (checksum error), count"
vector 33 GEANT.node12.udp passedUpPk:vector(count) ETV
attr interpolationmode none
attr recordingmode vector(count)
attr source packetSentToUpper
attr title "packets passed up, count"
vector 34 GEANT.node12.udp droppedPkWrongPort:vector(count) ETV
attr interpolationmode none
attr recordingmode vector(count)
attr source packetDropReasonIsNoPortFound(packetDropped)
attr title "packets dropped (wrong port), count"
vector 35 GEANT.node12.udp droppedPkBadChecksum:vector(count) ETV
attr interpolationmode none
attr recordingmode vector(count)
attr source packetDropReasonIsIncorrectlyReceived(packetDropped)
attr title "packets dropped (checksum error), count"
vector 36 GEANT.node13.udp passedUpPk:vector(count) ETV
attr interpolationmode none
attr recordingmode vector(count)
attr source packetSentToUpper
attr title "packets passed up, count"
vector 37 GEANT.node13.udp droppedPkWrongPort:vector(count) ETV
attr interpolationmode none
attr recordingmode vector(count)
attr source packetDropReasonIsNoPortFound(packetDropped)
attr title "packets dropped (wrong port), count"
vector 38 GEANT.node13.udp droppedPkBadChecksum:vector(count) ETV
attr interpolationmode none
attr recordingmode vector(count)
attr source packetDropReasonIsIncorrectlyReceived(packetDropped)
attr title "packets dropped (checksum error), count"
vector 39 GEANT.node14.udp passedUpPk:vector(count) ETV
attr interpolationmode none
attr recordingmode vector(count)
attr source packetSentToUpper
attr title "packets passed up, count"
vector 40 GEANT.node14.udp droppedPkWrongPort:vector(count) ETV
attr interpolationmode none
attr recordingmode vector(count)
attr source packetDropReasonIsNoPortFound(packetDropped)
attr title "packets dropped (wrong port), count"
vector 41 GEANT.node14.udp droppedPkBadChecksum:vector(count) ETV
attr interpolationmode none
attr recordingmode vector(count)
attr source packetDropReasonIsIncorrectlyReceived(packetDropped)
attr title "packets dropped (checksum error), count"
vector 42 GEANT.node15.udp passedUpPk:vector(count) ETV
attr interpolationmode none
attr recordingmode vector(count)
attr source packetSentToUpper
attr title "packets passed up, count"
vector 43 GEANT.node15.udp droppedPkWrongPort:vector(count) ETV
attr interpolationmode none
attr recordingmode vector(count)
attr source packetDropReasonIsNoPortFound(packetDropped)
attr title "packets dropped (wrong port), count"
vector 44 GEANT.node15.udp droppedPkBadChecksum:vector(count) ETV
attr interpolationmode none
attr recordingmode vector(count)
attr source packetDropReasonIsIncorrectlyReceived(packetDropped)
attr title "packets dropped (checksum error), count"
vector 45 GEANT.node16.udp passedUpPk:vector(count) ETV
attr interpolationmode none
attr recordingmode vector(count)
attr source packetSentToUpper
attr title "packets passed up, count"
vector 46 GEANT.node16.udp droppedPkWrongPort:vector(count) ETV
attr interpolationmode none
attr recordingmode vector(count)
attr source packetDropReasonIsNoPortFound(packetDropped)
attr title "packets dropped (wrong port), count"
vector 47 GEANT.node16.udp droppedPkBadChecksum:vector(count) ETV
attr interpolationmode none
attr recordingmode vector(count)
attr source packetDropReasonIsIncorrectlyReceived(packetDropped)
attr title "packets dropped (checksum error), count"
vector 48 GEANT.node17.udp passedUpPk:vector(count) ETV
attr interpolationmode none
attr recordingmode vector(count)
attr source packetSentToUpper
attr title "packets passed up, count"
vector 49 GEANT.node17.udp droppedPkWrongPort:vector(count) ETV
attr interpolationmode none
attr recordingmode vector(count)
attr source packetDropReasonIsNoPortFound(packetDropped)
attr title "packets dropped (wrong port), count"
vector 50 GEANT.node17.udp droppedPkBadChecksum:vector(count) ETV
attr interpolationmode none
attr recordingmode vector(count)
attr source packetDropReasonIsIncorrectlyReceived(packetDropped)
attr title "packets dropped (checksum error), count"
vector 51 GEANT.node18.udp passedUpPk:vector(count) ETV
attr interpolationmode none
attr recordingmode vector(count)
attr source packetSentToUpper
attr title "packets passed up, count"
vector 52 GEANT.node18.udp droppedPkWrongPort:vector(count) ETV
attr interpolationmode none
attr recordingmode vector(count)
attr source packetDropReasonIsNoPortFound(packetDropped)
attr title "packets dropped (wrong port), count"
vector 53 GEANT.node18.udp droppedPkBadChecksum:vector(count) ETV
attr interpolationmode none
attr recordingmode vector(count)
attr source packetDropReasonIsIncorrectlyReceived(packetDropped)
attr title "packets dropped (checksum error), count"
vector 54 GEANT.node19.udp passedUpPk:vector(count) ETV
attr interpolationmode none
attr recordingmode vector(count)
attr source packetSentToUpper
attr title "packets passed up, count"
vector 55 GEANT.node19.udp droppedPkWrongPort:vector(count) ETV
attr interpolationmode none
attr recordingmode vector(count)
attr source packetDropReasonIsNoPortFound(packetDropped)
attr title "packets dropped (wrong port), count"
vector 56 GEANT.node19.udp droppedPkBadChecksum:vector(count) ETV
attr interpolationmode none
attr recordingmode vector(count)
attr source packetDropReasonIsIncorrectlyReceived(packetDropped)
attr title "packets dropped (checksum error), count"
vector 57 GEANT.node20.udp passedUpPk:vector(count) ETV
attr interpolationmode none
attr recordingmode vector(count)
attr source packetSentToUpper
attr title "packets passed up, count"
vector 58 GEANT.node20.udp droppedPkWrongPort:vector(count) ETV
attr interpolationmode none
attr recordingmode vector(count)
attr source packetDropReasonIsNoPortFound(packetDropped)
attr title "packets dropped (wrong port), count"
vector 59 GEANT.node20.udp droppedPkBadChecksum:vector(count) ETV
attr interpolationmode none
attr recordingmode vector(count)
attr source packetDropReasonIsIncorrectlyReceived(packetDropped)
attr title "packets dropped (checksum error), count"
vector 60 GEANT.node21.udp passedUpPk:vector(count) ETV
attr interpolationmode none
attr recordingmode vector(count)
attr source packetSentToUpper
attr title "packets passed up, count"
vector 61 GEANT.node21.udp droppedPkWrongPort:vector(count) ETV
attr interpolationmode none
attr recordingmode vector(count)
attr source packetDropReasonIsNoPortFound(packetDropped)
attr title "packets dropped (wrong port), count"
vector 62 GEANT.node21.udp droppedPkBadChecksum:vector(count) ETV
attr interpolationmode none
attr recordingmode vector(count)
attr source packetDropReasonIsIncorrectlyReceived(packetDropped)
attr title "packets dropped (checksum error), count"
vector 63 GEANT.node22.udp passedUpPk:vector(count) ETV
attr interpolationmode none
attr recordingmode vector(count)
attr source packetSentToUpper
attr title "packets passed up, count"
vector 64 GEANT.node22.udp droppedPkWrongPort:vector(count) ETV
attr interpolationmode none
attr recordingmode vector(count)
attr source packetDropReasonIsNoPortFound(packetDropped)
attr title "packets dropped (wrong port), count"
vector 65 GEANT.node22.udp droppedPkBadChecksum:vector(count) ETV
attr interpolationmode none
attr recordingmode vector(count)
attr source packetDropReasonIsIncorrectlyReceived(packetDropped)
attr title "packets dropped (checksum error), count"
vector 66 GEANT.node23.udp passedUpPk:vector(count) ETV
attr interpolationmode none
attr recordingmode vector(count)
attr source packetSentToUpper
attr title "packets passed up, count"
vector 67 GEANT.node23.udp droppedPkWrongPort:vector(count) ETV
attr interpolationmode none
attr recordingmode vector(count)
attr source packetDropReasonIsNoPortFound(packetDropped)
attr title "packets dropped (wrong port), count"
vector 68 GEANT.node23.udp droppedPkBadChecksum:vector(count) ETV
attr interpolationmode none
attr recordingmode vector(count)
attr source packetDropReasonIsIncorrectlyReceived(packetDropped)
attr title "packets dropped (checksum error), count"
vector 69 GEANT.node21.app[2] packetSent:vector(packetBytes) ETV
attr interpolationmode none
attr recordingmode vector(packetBytes)
attr source packetSent
attr title "packets sent, packetBytes"
vector 70 GEANT.node21.udp packetSent:vector(packetBytes) ETV
attr interpolationmode none
attr recordingmode vector(packetBytes)
attr source packetSent
attr title "packets sent, packetBytes"
vector 71 GEANT.node21.ethernet encapPk:vector(packetBytes) ETV
attr interpolationmode none
attr recordingmode vector(packetBytes)
attr source encapPk
attr title "packets encapsulated, packetBytes"
vector 72 GEANT.node21.eth[1].queue incomingPacketLengths:vector ETV
attr interpolationmode none
attr recordingmode vector
attr source packetLength(packetPushStarted)
attr title "incoming packet lengths"
attr unit b
vector 73 GEANT.node21.eth[1].queue queueingTime:vector ETV
attr interpolationmode none
attr recordingmode vector
attr source queueingTime(packetPulled)
attr title "queueing times"
attr unit s
vector 74 GEANT.node21.eth[1].queue outgoingPacketLengths:vector ETV
attr interpolationmode none
attr recordingmode vector
attr source packetLength(packetPulled)
attr title "outgoing packet lengths"
attr unit b
vector 75 GEANT.node21.eth[1].mac packetReceivedFromUpper:vector(packetBytes) ETV
attr interpolationmode none
attr recordingmode vector(packetBytes)
attr source packetReceivedFromUpper
attr title "packet bytes from higher layer, packetBytes"
vector 76 GEANT.node21.eth[1].queue queueLength:vector ETV
attr autoWarmupFilter false
attr interpolationmode sample-hold
attr recordingmode vector
attr source "warmup(atomic(constant0(packetPushEnded) + count(packetPushStarted) - count(packetPulled) - count(packetRemoved) - count(packetDropped)))"
attr title "queue length"
attr unit pk
vector 77 GEANT.node21.eth[1].queue queueBitLength:vector ETV
attr autoWarmupFilter false
attr interpolationmode sample-hold
attr recordingmode vector
attr source "warmup(atomic(constant0(packetPushEnded) + sum(packetLength(packetPushStarted)) - sum(packetLength(packetPulled)) - sum(packetLength(packetRemoved)) - sum(packetLength(packetDropped))))"
attr title "queue bit length"
attr unit b
vector 78 GEANT.node10.app[1] packetSent:vector(packetBytes) ETV
attr interpolationmode none
attr recordingmode vector(packetBytes)
attr source packetSent
attr title "packets sent, packetBytes"
vector 79 GEANT.node10.udp packetSent:vector(packetBytes) ETV
attr interpolationmode none
attr recordingmode vector(packetBytes)
attr source packetSent
attr title "packets sent, packetBytes"
vector 80 GEANT.node10.ethernet encapPk:vector(packetBytes) ETV
attr interpolationmode none
attr recordingmode vector(packetBytes)
attr source encapPk
attr title "packets encapsulated, packetBytes"
vector 81 GEANT.node10.eth[0].queue incomingPacketLengths:vector ETV
attr interpolationmode none
attr recordingmode vector
attr source packetLength(packetPushStarted)
attr title "incoming packet lengths"
attr unit b
vector 82 GEANT.node10.eth[0].queue queueingTime:vector ETV
attr interpolationmode none
attr recordingmode vector
attr source queueingTime(packetPulled)
attr title "queueing times"
attr unit s
vector 83 GEANT.node10.eth[0].queue outgoingPacketLengths:vector ETV
attr interpolationmode none
attr recordingmode vector
attr source packetLength(packetPulled)
attr title "outgoing packet lengths"
attr unit b
vector 84 GEANT.node10.eth[0].mac packetReceivedFromUpper:vector(packetBytes) ETV
attr interpolationmode none
attr recordingmode vector(packetBytes)
attr source packetReceivedFromUpper
attr title "packet bytes from higher layer, packetBytes"
vector 85 GEANT.node10.eth[0].queue queueLength:vector ETV
attr autoWarmupFilter false
attr interpolationmode sample-hold
attr recordingmode vector
attr source "warmup(atomic(constant0(packetPushEnded) + count(packetPushStarted) - count(packetPulled) - count(packetRemoved) - count(packetDropped)))"
attr title "queue length"
attr unit pk
vector 86 GEANT.node10.eth[0].queue queueBitLength:vector ETV
attr autoWarmupFilter false
attr interpolationmode sample-hold
attr recordingmode vector
attr source "warmup(atomic(constant0(packetPushEnded) + sum(packetLength(packetPushStarted)) - sum(packetLength(packetPulled)) - sum(packetLength(packetRemoved)) - sum(packetLength(packetDropped))))"
attr title "queue bit length"
attr unit b
vector 87 GEANT.node21.eth[1].mac txPk:vector(packetBytes) ETV
attr interpolationmode none
attr recordingmode vector(packetBytes)
attr source packetSentToLower
attr title "packets transmitted, packetBytes"
vector 88 GEANT.node7.eth[5].mac rxPkOk:vector(packetBytes) ETV
attr interpolationmode none
attr recordingmode vector(packetBytes)
attr source rxPkOk
attr title "packets received OK, packetBytes"
vector 89 GEANT.node7.eth[5].mac passedUpPk:vector(packetBytes) ETV
attr interpolationmode none
attr recordingmode vector(packetBytes)
attr source packetSentToUpper
attr title "packets passed to higher layer, packetBytes"
vector 90 GEANT.node7.ethernet decapPk:vector(packetBytes) ETV
attr interpolationmode none
attr recordingmode vector(packetBytes)
attr source decapPk
attr title "packets decapsulated, packetBytes"
vector 91 GEANT.node7.ethernet encapPk:vector(packetBytes) ETV
attr interpolationmode none
attr recordingmode vector(packetBytes)
attr source encapPk
attr title "packets encapsulated, packetBytes"
vector 92 GEANT.node7.eth[1].queue incomingPacketLengths:vector ETV
attr interpolationmode none
attr recordingmode vector
attr source packetLength(packetPushStarted)
attr title "incoming packet lengths"
attr unit b
vector 93 GEANT.node7.eth[1].queue queueingTime:vector ETV
attr interpolationmode none
attr recordingmode vector
attr source queueingTime(packetPulled)
attr title "queueing times"
attr unit s
vector 94 GEANT.node7.eth[1].queue outgoingPacketLengths:vector ETV
attr interpolationmode none
attr recordingmode vector
attr source packetLength(packetPulled)
attr title "outgoing packet lengths"
attr unit b
vector 95 GEANT.node7.eth[1].mac packetReceivedFromUpper:vector(packetBytes) ETV
attr interpolationmode none
attr recordingmode vector(packetBytes)
attr source packetReceivedFromUpper
attr title "packet bytes from higher layer, packetBytes"
vector 96 GEANT.node7.eth[1].queue queueLength:vector ETV
attr autoWarmupFilter false
attr interpolationmode sample-hold
attr recordingmode vector
attr source "warmup(atomic(constant0(packetPushEnded) + count(packetPushStarted) - count(packetPulled) - count(packetRemoved) - count(packetDropped)))"
attr title "queue length"
attr unit pk
vector 97 GEANT.node7.eth[1].queue queueBitLength:vector ETV
attr autoWarmupFilter false
attr interpolationmode sample-hold
attr recordingmode vector
attr source "warmup(atomic(constant0(packetPushEnded) + sum(packetLength(packetPushStarted)) - sum(packetLength(packetPulled)) - sum(packetLength(packetRemoved)) - sum(packetLength(packetDropped))))"
attr title "queue bit length"
attr unit b
vector 98 GEANT.node9.app[6] packetSent:vector(packetBytes) ETV
attr interpolationmode none
attr recordingmode vector(packetBytes)
attr source packetSent
attr title "packets sent, packetBytes"
vector 99 GEANT.node9.udp packetSent:vector(packetBytes) ETV
attr interpolationmode none
attr recordingmode vector(packetBytes)
attr source packetSent
attr title "packets sent, packetBytes"
vector 100 GEANT.node9.ethernet encapPk:vector(packetBytes) ETV
attr interpolationmode none
attr recordingmode vector(packetBytes)
attr source encapPk
attr title "packets encapsulated, packetBytes"
vector 101 GEANT.node9.eth[2].queue incomingPacketLengths:vector ETV
attr interpolationmode none
attr recordingmode vector
attr source packetLength(packetPushStarted)
attr title "incoming packet lengths"
attr unit b
vector 102 GEANT.node9.eth[2].queue queueingTime:vector ETV
attr interpolationmode none
attr recordingmode vector
attr source queueingTime(packetPulled)
attr title "queueing times"
attr unit s
vector 103 GEANT.node9.eth[2].queue outgoingPacketLengths:vector ETV
attr interpolationmode none
attr recordingmode vector
attr source packetLength(packetPulled)
attr title "outgoing packet lengths"
attr unit b
vector 104 GEANT.node9.eth[2].mac packetReceivedFromUpper:vector(packetBytes) ETV
attr interpolationmode none
attr recordingmode vector(packetBytes)
attr source packetReceivedFromUpper
attr title "packet bytes from higher layer, packetBytes"
vector 105 GEANT.node9.eth[2].queue queueLength:vector ETV
attr autoWarmupFilter false
attr interpolationmode sample-hold
attr recordingmode vector
attr source "warmup(atomic(constant0(packetPushEnded) + count(packetPushStarted) - count(packetPulled) - count(packetRemoved) - count(packetDropped)))"
attr title "queue length"
attr unit pk
vector 106 GEANT.node9.eth[2].queue queueBitLength:vector ETV
attr autoWarmupFilter false
attr interpolationmode sample-hold
attr recordingmode vector
attr source "warmup(atomic(constant0(packetPushEnded) + sum(packetLength(packetPushStarted)) - sum(packetLength(packetPulled)) - sum(packetLength(packetRemoved)) - sum(packetLength(packetDropped))))"
attr title "queue bit length"
attr unit b
vector 107 GEANT.node10.eth[0].mac txPk:vector(packetBytes) ETV
attr interpolationmode none
attr recordingmode vector(packetBytes)
attr source packetSentToLower
attr title "packets transmitted, packetBytes"
vector 108 GEANT.node3.eth[1].mac rxPkOk:vector(packetBytes) ETV
attr interpolationmode none
attr recordingmode vector(packetBytes)
attr source rxPkOk
attr title "packets received OK, packetBytes"
vector 109 GEANT.node3.eth[1].mac passedUpPk:vector(packetBytes) ETV
attr interpolationmode none
attr recordingmode vector(packetBytes)
attr source packetSentToUpper
attr title "packets passed to higher layer, packetBytes"
vector 110 GEANT.node3.ethernet decapPk:vector(packetBytes) ETV
attr interpolationmode none
attr recordingmode vector(packetBytes)
attr source decapPk
attr title "packets decapsulated, packetBytes"
vector 111 GEANT.node3.ethernet encapPk:vector(packetBytes) ETV
attr interpolationmode none
attr recordingmode vector(packetBytes)
attr source encapPk
attr title "packets encapsulated, packetBytes"
vector 112 GEANT.node3.eth[0].queue incomingPacketLengths:vector ETV
attr interpolationmode none
attr recordingmode vector
attr source packetLength(packetPushStarted)
attr title "incoming packet lengths"
attr unit b
vector 113 GEANT.node3.eth[0].queue queueingTime:vector ETV
attr interpolationmode none
attr recordingmode vector
attr source queueingTime(packetPulled)
attr title "queueing times"
attr unit s
vector 114 GEANT.node3.eth[0].queue outgoingPacketLengths:vector ETV
attr interpolationmode none
attr recordingmode vector
attr source packetLength(packetPulled)
attr title "outgoing packet lengths"
attr unit b
vector 115 GEANT.node3.eth[0].mac packetReceivedFromUpper:vector(packetBytes) ETV
attr interpolationmode none
attr recordingmode vector(packetBytes)
attr source packetReceivedFromUpper
attr title "packet bytes from higher layer, packetBytes"
vector 116 GEANT.node3.eth[0].queue queueLength:vector ETV
attr autoWarmupFilter false
attr interpolationmode sample-hold
attr recordingmode vector
attr source "warmup(atomic(constant0(packetPushEnded) + count(packetPushStarted) - count(packetPulled) - count(packetRemoved) - count(packetDropped)))"
attr title "queue length"
attr unit pk
vector 117 GEANT.node3.eth[0].queue queueBitLength:vector ETV
attr autoWarmupFilter false
attr interpolationmode sample-hold
attr recordingmode vector
attr source "warmup(atomic(constant0(packetPushEnded) + sum(packetLength(packetPushStarted)) - sum(packetLength(packetPulled)) - sum(packetLength(packetRemoved)) - sum(packetLength(packetDropped))))"
attr title "queue bit length"
attr unit b
vector 118 GEANT.node16.app[3] packetSent:vector(packetBytes) ETV
attr interpolationmode none
attr recordingmode vector(packetBytes)
attr source packetSent
attr title "packets sent, packetBytes"
vector 119 GEANT.node16.udp packetSent:vector(packetBytes) ETV
attr interpolationmode none
attr recordingmode vector(packetBytes)
attr source packetSent
attr title "packets sent, packetBytes"
vector 120 GEANT.node16.ethernet encapPk:vector(packetBytes) ETV
attr interpolationmode none
attr recordingmode vector(packetBytes)
attr source encapPk
attr title "packets encapsulated, packetBytes"
vector 121 GEANT.node16.eth[0].queue incomingPacketLengths:vector ETV
attr interpolationmode none
attr recordingmode vector
attr source packetLength(packetPushStarted)
attr title "incoming packet lengths"
attr unit b
vector 122 GEANT.node16.eth[0].queue queueingTime:vector ETV
attr interpolationmode none
attr recordingmode vector
attr source queueingTime(packetPulled)
attr title "queueing times"
attr unit s
vector 123 GEANT.node16.eth[0].queue outgoingPacketLengths:vector ETV
attr interpolationmode none
attr recordingmode vector
attr source packetLength(packetPulled)
attr title "outgoing packet lengths"
attr unit b
vector 124 GEANT.node16.eth[0].mac packetReceivedFromUpper:vector(packetBytes) ETV
attr interpolationmode none
attr recordingmode vector(packetBytes)
attr source packetReceivedFromUpper
attr title "packet bytes from higher layer, packetBytes"
vector 125 GEANT.node16.eth[0].queue queueLength:vector ETV
attr autoWarmupFilter false
attr interpolationmode sample-hold
attr recordingmode vector
attr source "warmup(atomic(constant0(packetPushEnded) + count(packetPushStarted) - count(packetPulled) - count(packetRemoved) - count(packetDropped)))"